 # Ag nanotube of type zigzag (0,20); radius: 6.939 A..
 
          80  atoms
           1  atom types
 
      0.000000000000      27.756622075227  xlo xhi
      0.000000000000      24.037939840390  ylo yhi
      0.000000000000       3.775870760500  zlo zhi
     13.878311037613       0.000000000000       0.000000000000  xy xz yz
 
Masses
 
            1   107.86820000            # Ag
 
Atoms # atomic
 
         1    1        6.939155518807       0.000000000000       1.258623586833
         2    1        6.939155518807       0.000000000000       0.000000000000
         3    1        6.853722999502       1.085523081415       3.146558967083
         4    1        6.853722999502       1.085523081415       1.887935380250
         5    1        6.599529073747       2.144316981922       1.258623586833
         6    1        6.599529073747       2.144316981922       0.000000000000
         7    1        6.182832839614       3.150310681753       3.146558967083
         8    1        6.182832839614       3.150310681753       1.887935380250
         9    1        5.613894741325       4.078733277318       1.258623586833
        10    1        5.613894741325       4.078733277318       0.000000000000
        11    1        4.906723923056       4.906723923056       3.146558967083
        12    1        4.906723923056       4.906723923056       1.887935380250
        13    1        4.078733277318       5.613894741325       1.258623586833
        14    1        4.078733277318       5.613894741325       0.000000000000
        15    1        3.150310681753       6.182832839614       3.146558967083
        16    1        3.150310681753       6.182832839614       1.887935380250
        17    1        2.144316981922       6.599529073747       1.258623586833
        18    1        2.144316981922       6.599529073747       0.000000000000
        19    1        1.085523081415       6.853722999502       3.146558967083
        20    1        1.085523081415       6.853722999502       1.887935380250
        21    1        0.000000000000       6.939155518807       1.258623586833
        22    1        0.000000000000       6.939155518807       0.000000000000
        23    1       -1.085523081415       6.853722999502       3.146558967083
        24    1       -1.085523081415       6.853722999502       1.887935380250
        25    1       -2.144316981922       6.599529073747       1.258623586833
        26    1       -2.144316981922       6.599529073747       0.000000000000
        27    1       -3.150310681753       6.182832839614       3.146558967083
        28    1       -3.150310681753       6.182832839614       1.887935380250
        29    1       -4.078733277318       5.613894741325       1.258623586833
        30    1       -4.078733277318       5.613894741325       0.000000000000
        31    1       -4.906723923056       4.906723923056       3.146558967083
        32    1       -4.906723923056       4.906723923056       1.887935380250
        33    1       -5.613894741325       4.078733277318       1.258623586833
        34    1       -5.613894741325       4.078733277318       0.000000000000
        35    1       -6.182832839614       3.150310681753       3.146558967083
        36    1       -6.182832839614       3.150310681753       1.887935380250
        37    1       -6.599529073747       2.144316981922       1.258623586833
        38    1       -6.599529073747       2.144316981922       0.000000000000
        39    1       -6.853722999502       1.085523081415       3.146558967083
        40    1       -6.853722999502       1.085523081415       1.887935380250
        41    1       -6.939155518807       0.000000000000       1.258623586833
        42    1       -6.939155518807       0.000000000000       0.000000000000
        43    1       -6.853722999502      -1.085523081415       3.146558967083
        44    1       -6.853722999502      -1.085523081415       1.887935380250
        45    1       -6.599529073747      -2.144316981922       1.258623586833
        46    1       -6.599529073747      -2.144316981922       0.000000000000
        47    1       -6.182832839614      -3.150310681753       3.146558967083
        48    1       -6.182832839614      -3.150310681753       1.887935380250
        49    1       -5.613894741325      -4.078733277318       1.258623586833
        50    1       -5.613894741325      -4.078733277318       0.000000000000
        51    1       -4.906723923056      -4.906723923056       3.146558967083
        52    1       -4.906723923056      -4.906723923056       1.887935380250
        53    1       -4.078733277318      -5.613894741325       1.258623586833
        54    1       -4.078733277318      -5.613894741325       0.000000000000
        55    1       -3.150310681753      -6.182832839614       3.146558967083
        56    1       -3.150310681753      -6.182832839614       1.887935380250
        57    1       -2.144316981922      -6.599529073747       1.258623586833
        58    1       -2.144316981922      -6.599529073747       0.000000000000
        59    1       -1.085523081415      -6.853722999502       3.146558967083
        60    1       -1.085523081415      -6.853722999502       1.887935380250
        61    1       -0.000000000000      -6.939155518807       1.258623586833
        62    1       -0.000000000000      -6.939155518807       0.000000000000
        63    1        1.085523081415      -6.853722999502       3.146558967083
        64    1        1.085523081415      -6.853722999502       1.887935380250
        65    1        2.144316981922      -6.599529073747       1.258623586833
        66    1        2.144316981922      -6.599529073747       0.000000000000
        67    1        3.150310681753      -6.182832839614       3.146558967083
        68    1        3.150310681753      -6.182832839614       1.887935380250
        69    1        4.078733277318      -5.613894741325       1.258623586833
        70    1        4.078733277318      -5.613894741325       0.000000000000
        71    1        4.906723923056      -4.906723923056       3.146558967083
        72    1        4.906723923056      -4.906723923056       1.887935380250
        73    1        5.613894741325      -4.078733277318       1.258623586833
        74    1        5.613894741325      -4.078733277318       0.000000000000
        75    1        6.182832839614      -3.150310681753       3.146558967083
        76    1        6.182832839614      -3.150310681753       1.887935380250
        77    1        6.599529073747      -2.144316981922       1.258623586833
        78    1        6.599529073747      -2.144316981922       0.000000000000
        79    1        6.853722999502      -1.085523081415       3.146558967083
        80    1        6.853722999502      -1.085523081415       1.887935380250
