 # Fcc Ag oriented X=[100] Y=[010] Z=[001].
 
       13680  atoms
           2  atom types
 
      0.000000000000      81.800000000000  xlo xhi
      0.000000000000      81.800000000000  ylo yhi
      0.000000000000     245.400000000000  zlo zhi
 
Masses
 
            1   107.86820000            # Ag
            2   63.54600000             # Cu
 
Atoms # atomic
 
         1    1       34.765000000000       2.045000000000       0.000000000000
         2    1       32.720000000000       2.045000000000       2.045000000000
         3    1       38.855000000000       2.045000000000       0.000000000000
         4    1       36.810000000000       2.045000000000       2.045000000000
         5    1       42.945000000000       2.045000000000       0.000000000000
         6    1       40.900000000000       2.045000000000       2.045000000000
         7    1       47.035000000000       2.045000000000       0.000000000000
         8    1       44.990000000000       2.045000000000       2.045000000000
         9    1       49.080000000000       2.045000000000       2.045000000000
        10    1       22.495000000000       6.135000000000       0.000000000000
        11    2       26.585000000000       6.135000000000       0.000000000000
        12    1       24.540000000000       6.135000000000       2.045000000000
        13    1       26.585000000000       4.090000000000       2.045000000000
        14    1       28.630000000000       4.090000000000       0.000000000000
        15    2       30.675000000000       6.135000000000       0.000000000000
        16    2       28.630000000000       6.135000000000       2.045000000000
        17    1       30.675000000000       4.090000000000       2.045000000000
        18    2       32.720000000000       4.090000000000       0.000000000000
        19    2       34.765000000000       4.090000000000       2.045000000000
        20    2       36.810000000000       4.090000000000       0.000000000000
        21    2       38.855000000000       4.090000000000       2.045000000000
        22    2       40.900000000000       4.090000000000       0.000000000000
        23    2       42.945000000000       4.090000000000       2.045000000000
        24    2       44.990000000000       4.090000000000       0.000000000000
        25    2       47.035000000000       4.090000000000       2.045000000000
        26    2       49.080000000000       4.090000000000       0.000000000000
        27    2       51.125000000000       6.135000000000       0.000000000000
        28    1       51.125000000000       4.090000000000       2.045000000000
        29    1       53.170000000000       4.090000000000       0.000000000000
        30    2       55.215000000000       6.135000000000       0.000000000000
        31    2       53.170000000000       6.135000000000       2.045000000000
        32    1       55.215000000000       4.090000000000       2.045000000000
        33    1       59.305000000000       6.135000000000       0.000000000000
        34    1       57.260000000000       6.135000000000       2.045000000000
        35    1       18.405000000000      10.225000000000       0.000000000000
        36    1       16.360000000000      10.225000000000       2.045000000000
        37    1       18.405000000000       8.180000000000       2.045000000000
        38    1       20.450000000000       8.180000000000       0.000000000000
        39    2       20.450000000000      10.225000000000       2.045000000000
        40    2       22.495000000000       8.180000000000       2.045000000000
        41    2       24.540000000000       8.180000000000       0.000000000000
        42    2       57.260000000000       8.180000000000       0.000000000000
        43    2       59.305000000000       8.180000000000       2.045000000000
        44    1       61.350000000000       8.180000000000       0.000000000000
        45    1       63.395000000000      10.225000000000       0.000000000000
        46    2       61.350000000000      10.225000000000       2.045000000000
        47    1       63.395000000000       8.180000000000       2.045000000000
        48    1       65.440000000000      10.225000000000       2.045000000000
        49    2       14.315000000000      14.315000000000       0.000000000000
        50    1       12.270000000000      14.315000000000       2.045000000000
        51    1       14.315000000000      12.270000000000       2.045000000000
        52    2       16.360000000000      12.270000000000       0.000000000000
        53    2       16.360000000000      14.315000000000       2.045000000000
        54    2       18.405000000000      12.270000000000       2.045000000000
        55    2       63.395000000000      12.270000000000       2.045000000000
        56    2       65.440000000000      12.270000000000       0.000000000000
        57    2       67.485000000000      14.315000000000       0.000000000000
        58    2       65.440000000000      14.315000000000       2.045000000000
        59    1       67.485000000000      12.270000000000       2.045000000000
        60    1       69.530000000000      14.315000000000       2.045000000000
        61    1       10.225000000000      18.405000000000       0.000000000000
        62    1        8.180000000000      18.405000000000       2.045000000000
        63    1       10.225000000000      16.360000000000       2.045000000000
        64    2       12.270000000000      16.360000000000       0.000000000000
        65    2       12.270000000000      18.405000000000       2.045000000000
        66    2       14.315000000000      16.360000000000       2.045000000000
        67    2       67.485000000000      16.360000000000       2.045000000000
        68    2       69.530000000000      16.360000000000       0.000000000000
        69    1       71.575000000000      18.405000000000       0.000000000000
        70    2       69.530000000000      18.405000000000       2.045000000000
        71    1       71.575000000000      16.360000000000       2.045000000000
        72    1       73.620000000000      18.405000000000       2.045000000000
        73    1        6.135000000000      22.495000000000       0.000000000000
        74    1        8.180000000000      20.450000000000       0.000000000000
        75    2        8.180000000000      22.495000000000       2.045000000000
        76    2       10.225000000000      20.450000000000       2.045000000000
        77    2       71.575000000000      20.450000000000       2.045000000000
        78    1       73.620000000000      20.450000000000       0.000000000000
        79    1       75.665000000000      22.495000000000       0.000000000000
        80    2       73.620000000000      22.495000000000       2.045000000000
        81    2        6.135000000000      26.585000000000       0.000000000000
        82    1        4.090000000000      26.585000000000       2.045000000000
        83    1        6.135000000000      24.540000000000       2.045000000000
        84    2        8.180000000000      24.540000000000       0.000000000000
        85    2       73.620000000000      24.540000000000       0.000000000000
        86    2       75.665000000000      26.585000000000       0.000000000000
        87    1       75.665000000000      24.540000000000       2.045000000000
        88    1       77.710000000000      26.585000000000       2.045000000000
        89    1        4.090000000000      28.630000000000       0.000000000000
        90    2        6.135000000000      30.675000000000       0.000000000000
        91    1        4.090000000000      30.675000000000       2.045000000000
        92    2        6.135000000000      28.630000000000       2.045000000000
        93    2       75.665000000000      30.675000000000       0.000000000000
        94    2       75.665000000000      28.630000000000       2.045000000000
        95    1       77.710000000000      28.630000000000       0.000000000000
        96    1       77.710000000000      30.675000000000       2.045000000000
        97    1        2.045000000000      34.765000000000       0.000000000000
        98    1        2.045000000000      32.720000000000       2.045000000000
        99    2        4.090000000000      32.720000000000       0.000000000000
       100    2        4.090000000000      34.765000000000       2.045000000000
       101    2       77.710000000000      32.720000000000       0.000000000000
       102    1       79.755000000000      34.765000000000       0.000000000000
       103    2       77.710000000000      34.765000000000       2.045000000000
       104    1       79.755000000000      32.720000000000       2.045000000000
       105    1        2.045000000000      38.855000000000       0.000000000000
       106    1        2.045000000000      36.810000000000       2.045000000000
       107    2        4.090000000000      36.810000000000       0.000000000000
       108    2        4.090000000000      38.855000000000       2.045000000000
       109    2       77.710000000000      36.810000000000       0.000000000000
       110    1       79.755000000000      38.855000000000       0.000000000000
       111    2       77.710000000000      38.855000000000       2.045000000000
       112    1       79.755000000000      36.810000000000       2.045000000000
       113    1        2.045000000000      42.945000000000       0.000000000000
       114    1        2.045000000000      40.900000000000       2.045000000000
       115    2        4.090000000000      40.900000000000       0.000000000000
       116    2        4.090000000000      42.945000000000       2.045000000000
       117    2       77.710000000000      40.900000000000       0.000000000000
       118    1       79.755000000000      42.945000000000       0.000000000000
       119    2       77.710000000000      42.945000000000       2.045000000000
       120    1       79.755000000000      40.900000000000       2.045000000000
       121    1        2.045000000000      47.035000000000       0.000000000000
       122    1        2.045000000000      44.990000000000       2.045000000000
       123    2        4.090000000000      44.990000000000       0.000000000000
       124    2        4.090000000000      47.035000000000       2.045000000000
       125    2       77.710000000000      44.990000000000       0.000000000000
       126    1       79.755000000000      47.035000000000       0.000000000000
       127    2       77.710000000000      47.035000000000       2.045000000000
       128    1       79.755000000000      44.990000000000       2.045000000000
       129    1        2.045000000000      49.080000000000       2.045000000000
       130    2        4.090000000000      49.080000000000       0.000000000000
       131    2        6.135000000000      51.125000000000       0.000000000000
       132    1        4.090000000000      51.125000000000       2.045000000000
       133    2       75.665000000000      51.125000000000       0.000000000000
       134    2       77.710000000000      49.080000000000       0.000000000000
       135    1       77.710000000000      51.125000000000       2.045000000000
       136    1       79.755000000000      49.080000000000       2.045000000000
       137    1        4.090000000000      53.170000000000       0.000000000000
       138    2        6.135000000000      55.215000000000       0.000000000000
       139    1        4.090000000000      55.215000000000       2.045000000000
       140    2        6.135000000000      53.170000000000       2.045000000000
       141    2       75.665000000000      55.215000000000       0.000000000000
       142    2       75.665000000000      53.170000000000       2.045000000000
       143    1       77.710000000000      53.170000000000       0.000000000000
       144    1       77.710000000000      55.215000000000       2.045000000000
       145    1        6.135000000000      59.305000000000       0.000000000000
       146    1        6.135000000000      57.260000000000       2.045000000000
       147    2        8.180000000000      57.260000000000       0.000000000000
       148    2        8.180000000000      59.305000000000       2.045000000000
       149    2       73.620000000000      57.260000000000       0.000000000000
       150    1       75.665000000000      59.305000000000       0.000000000000
       151    2       73.620000000000      59.305000000000       2.045000000000
       152    1       75.665000000000      57.260000000000       2.045000000000
       153    1        8.180000000000      61.350000000000       0.000000000000
       154    1       10.225000000000      63.395000000000       0.000000000000
       155    1        8.180000000000      63.395000000000       2.045000000000
       156    2       10.225000000000      61.350000000000       2.045000000000
       157    2       12.270000000000      63.395000000000       2.045000000000
       158    1       71.575000000000      63.395000000000       0.000000000000
       159    2       69.530000000000      63.395000000000       2.045000000000
       160    2       71.575000000000      61.350000000000       2.045000000000
       161    1       73.620000000000      61.350000000000       0.000000000000
       162    1       73.620000000000      63.395000000000       2.045000000000
       163    1       10.225000000000      65.440000000000       2.045000000000
       164    2       12.270000000000      65.440000000000       0.000000000000
       165    2       14.315000000000      67.485000000000       0.000000000000
       166    1       12.270000000000      67.485000000000       2.045000000000
       167    2       14.315000000000      65.440000000000       2.045000000000
       168    2       16.360000000000      67.485000000000       2.045000000000
       169    2       67.485000000000      67.485000000000       0.000000000000
       170    2       65.440000000000      67.485000000000       2.045000000000
       171    2       67.485000000000      65.440000000000       2.045000000000
       172    2       69.530000000000      65.440000000000       0.000000000000
       173    1       69.530000000000      67.485000000000       2.045000000000
       174    1       71.575000000000      65.440000000000       2.045000000000
       175    1       14.315000000000      69.530000000000       2.045000000000
       176    2       16.360000000000      69.530000000000       0.000000000000
       177    1       18.405000000000      71.575000000000       0.000000000000
       178    1       16.360000000000      71.575000000000       2.045000000000
       179    2       18.405000000000      69.530000000000       2.045000000000
       180    2       20.450000000000      71.575000000000       2.045000000000
       181    1       63.395000000000      71.575000000000       0.000000000000
       182    2       61.350000000000      71.575000000000       2.045000000000
       183    2       63.395000000000      69.530000000000       2.045000000000
       184    2       65.440000000000      69.530000000000       0.000000000000
       185    1       65.440000000000      71.575000000000       2.045000000000
       186    1       67.485000000000      69.530000000000       2.045000000000
       187    1       18.405000000000      73.620000000000       2.045000000000
       188    1       20.450000000000      73.620000000000       0.000000000000
       189    1       22.495000000000      75.665000000000       0.000000000000
       190    2       22.495000000000      73.620000000000       2.045000000000
       191    2       24.540000000000      73.620000000000       0.000000000000
       192    2       26.585000000000      75.665000000000       0.000000000000
       193    1       24.540000000000      75.665000000000       2.045000000000
       194    2       30.675000000000      75.665000000000       0.000000000000
       195    2       28.630000000000      75.665000000000       2.045000000000
       196    2       51.125000000000      75.665000000000       0.000000000000
       197    2       55.215000000000      75.665000000000       0.000000000000
       198    2       53.170000000000      75.665000000000       2.045000000000
       199    2       57.260000000000      73.620000000000       0.000000000000
       200    1       59.305000000000      75.665000000000       0.000000000000
       201    1       57.260000000000      75.665000000000       2.045000000000
       202    2       59.305000000000      73.620000000000       2.045000000000
       203    1       61.350000000000      73.620000000000       0.000000000000
       204    1       63.395000000000      73.620000000000       2.045000000000
       205    1       26.585000000000      77.710000000000       2.045000000000
       206    1       28.630000000000      77.710000000000       0.000000000000
       207    1       30.675000000000      77.710000000000       2.045000000000
       208    2       32.720000000000      77.710000000000       0.000000000000
       209    1       34.765000000000      79.755000000000       0.000000000000
       210    1       32.720000000000      79.755000000000       2.045000000000
       211    2       34.765000000000      77.710000000000       2.045000000000
       212    2       36.810000000000      77.710000000000       0.000000000000
       213    1       38.855000000000      79.755000000000       0.000000000000
       214    1       36.810000000000      79.755000000000       2.045000000000
       215    2       38.855000000000      77.710000000000       2.045000000000
       216    2       40.900000000000      77.710000000000       0.000000000000
       217    1       42.945000000000      79.755000000000       0.000000000000
       218    1       40.900000000000      79.755000000000       2.045000000000
       219    2       42.945000000000      77.710000000000       2.045000000000
       220    2       44.990000000000      77.710000000000       0.000000000000
       221    1       47.035000000000      79.755000000000       0.000000000000
       222    1       44.990000000000      79.755000000000       2.045000000000
       223    2       47.035000000000      77.710000000000       2.045000000000
       224    2       49.080000000000      77.710000000000       0.000000000000
       225    1       49.080000000000      79.755000000000       2.045000000000
       226    1       51.125000000000      77.710000000000       2.045000000000
       227    1       53.170000000000      77.710000000000       0.000000000000
       228    1       55.215000000000      77.710000000000       2.045000000000
       229    1       34.765000000000       2.045000000000       4.090000000000
       230    1       32.720000000000       2.045000000000       6.135000000000
       231    1       38.855000000000       2.045000000000       4.090000000000
       232    1       36.810000000000       2.045000000000       6.135000000000
       233    1       42.945000000000       2.045000000000       4.090000000000
       234    1       40.900000000000       2.045000000000       6.135000000000
       235    1       47.035000000000       2.045000000000       4.090000000000
       236    1       44.990000000000       2.045000000000       6.135000000000
       237    1       49.080000000000       2.045000000000       6.135000000000
       238    1       22.495000000000       6.135000000000       4.090000000000
       239    2       26.585000000000       6.135000000000       4.090000000000
       240    1       24.540000000000       6.135000000000       6.135000000000
       241    1       26.585000000000       4.090000000000       6.135000000000
       242    1       28.630000000000       4.090000000000       4.090000000000
       243    2       30.675000000000       6.135000000000       4.090000000000
       244    2       28.630000000000       6.135000000000       6.135000000000
       245    1       30.675000000000       4.090000000000       6.135000000000
       246    2       32.720000000000       4.090000000000       4.090000000000
       247    2       34.765000000000       4.090000000000       6.135000000000
       248    2       36.810000000000       4.090000000000       4.090000000000
       249    2       38.855000000000       4.090000000000       6.135000000000
       250    2       40.900000000000       4.090000000000       4.090000000000
       251    2       42.945000000000       4.090000000000       6.135000000000
       252    2       44.990000000000       4.090000000000       4.090000000000
       253    2       47.035000000000       4.090000000000       6.135000000000
       254    2       49.080000000000       4.090000000000       4.090000000000
       255    2       51.125000000000       6.135000000000       4.090000000000
       256    1       51.125000000000       4.090000000000       6.135000000000
       257    1       53.170000000000       4.090000000000       4.090000000000
       258    2       55.215000000000       6.135000000000       4.090000000000
       259    2       53.170000000000       6.135000000000       6.135000000000
       260    1       55.215000000000       4.090000000000       6.135000000000
       261    1       59.305000000000       6.135000000000       4.090000000000
       262    1       57.260000000000       6.135000000000       6.135000000000
       263    1       18.405000000000      10.225000000000       4.090000000000
       264    1       16.360000000000      10.225000000000       6.135000000000
       265    1       18.405000000000       8.180000000000       6.135000000000
       266    1       20.450000000000       8.180000000000       4.090000000000
       267    2       20.450000000000      10.225000000000       6.135000000000
       268    2       22.495000000000       8.180000000000       6.135000000000
       269    2       24.540000000000       8.180000000000       4.090000000000
       270    2       57.260000000000       8.180000000000       4.090000000000
       271    2       59.305000000000       8.180000000000       6.135000000000
       272    1       61.350000000000       8.180000000000       4.090000000000
       273    1       63.395000000000      10.225000000000       4.090000000000
       274    2       61.350000000000      10.225000000000       6.135000000000
       275    1       63.395000000000       8.180000000000       6.135000000000
       276    1       65.440000000000      10.225000000000       6.135000000000
       277    2       14.315000000000      14.315000000000       4.090000000000
       278    1       12.270000000000      14.315000000000       6.135000000000
       279    1       14.315000000000      12.270000000000       6.135000000000
       280    2       16.360000000000      12.270000000000       4.090000000000
       281    2       16.360000000000      14.315000000000       6.135000000000
       282    2       18.405000000000      12.270000000000       6.135000000000
       283    2       63.395000000000      12.270000000000       6.135000000000
       284    2       65.440000000000      12.270000000000       4.090000000000
       285    2       67.485000000000      14.315000000000       4.090000000000
       286    2       65.440000000000      14.315000000000       6.135000000000
       287    1       67.485000000000      12.270000000000       6.135000000000
       288    1       69.530000000000      14.315000000000       6.135000000000
       289    1       10.225000000000      18.405000000000       4.090000000000
       290    1        8.180000000000      18.405000000000       6.135000000000
       291    1       10.225000000000      16.360000000000       6.135000000000
       292    2       12.270000000000      16.360000000000       4.090000000000
       293    2       12.270000000000      18.405000000000       6.135000000000
       294    2       14.315000000000      16.360000000000       6.135000000000
       295    2       67.485000000000      16.360000000000       6.135000000000
       296    2       69.530000000000      16.360000000000       4.090000000000
       297    1       71.575000000000      18.405000000000       4.090000000000
       298    2       69.530000000000      18.405000000000       6.135000000000
       299    1       71.575000000000      16.360000000000       6.135000000000
       300    1       73.620000000000      18.405000000000       6.135000000000
       301    1        6.135000000000      22.495000000000       4.090000000000
       302    1        8.180000000000      20.450000000000       4.090000000000
       303    2        8.180000000000      22.495000000000       6.135000000000
       304    2       10.225000000000      20.450000000000       6.135000000000
       305    2       71.575000000000      20.450000000000       6.135000000000
       306    1       73.620000000000      20.450000000000       4.090000000000
       307    1       75.665000000000      22.495000000000       4.090000000000
       308    2       73.620000000000      22.495000000000       6.135000000000
       309    2        6.135000000000      26.585000000000       4.090000000000
       310    1        4.090000000000      26.585000000000       6.135000000000
       311    1        6.135000000000      24.540000000000       6.135000000000
       312    2        8.180000000000      24.540000000000       4.090000000000
       313    2       73.620000000000      24.540000000000       4.090000000000
       314    2       75.665000000000      26.585000000000       4.090000000000
       315    1       75.665000000000      24.540000000000       6.135000000000
       316    1       77.710000000000      26.585000000000       6.135000000000
       317    1        4.090000000000      28.630000000000       4.090000000000
       318    2        6.135000000000      30.675000000000       4.090000000000
       319    1        4.090000000000      30.675000000000       6.135000000000
       320    2        6.135000000000      28.630000000000       6.135000000000
       321    2       75.665000000000      30.675000000000       4.090000000000
       322    2       75.665000000000      28.630000000000       6.135000000000
       323    1       77.710000000000      28.630000000000       4.090000000000
       324    1       77.710000000000      30.675000000000       6.135000000000
       325    1        2.045000000000      34.765000000000       4.090000000000
       326    1        2.045000000000      32.720000000000       6.135000000000
       327    2        4.090000000000      32.720000000000       4.090000000000
       328    2        4.090000000000      34.765000000000       6.135000000000
       329    2       77.710000000000      32.720000000000       4.090000000000
       330    1       79.755000000000      34.765000000000       4.090000000000
       331    2       77.710000000000      34.765000000000       6.135000000000
       332    1       79.755000000000      32.720000000000       6.135000000000
       333    1        2.045000000000      38.855000000000       4.090000000000
       334    1        2.045000000000      36.810000000000       6.135000000000
       335    2        4.090000000000      36.810000000000       4.090000000000
       336    2        4.090000000000      38.855000000000       6.135000000000
       337    2       77.710000000000      36.810000000000       4.090000000000
       338    1       79.755000000000      38.855000000000       4.090000000000
       339    2       77.710000000000      38.855000000000       6.135000000000
       340    1       79.755000000000      36.810000000000       6.135000000000
       341    1        2.045000000000      42.945000000000       4.090000000000
       342    1        2.045000000000      40.900000000000       6.135000000000
       343    2        4.090000000000      40.900000000000       4.090000000000
       344    2        4.090000000000      42.945000000000       6.135000000000
       345    2       77.710000000000      40.900000000000       4.090000000000
       346    1       79.755000000000      42.945000000000       4.090000000000
       347    2       77.710000000000      42.945000000000       6.135000000000
       348    1       79.755000000000      40.900000000000       6.135000000000
       349    1        2.045000000000      47.035000000000       4.090000000000
       350    1        2.045000000000      44.990000000000       6.135000000000
       351    2        4.090000000000      44.990000000000       4.090000000000
       352    2        4.090000000000      47.035000000000       6.135000000000
       353    2       77.710000000000      44.990000000000       4.090000000000
       354    1       79.755000000000      47.035000000000       4.090000000000
       355    2       77.710000000000      47.035000000000       6.135000000000
       356    1       79.755000000000      44.990000000000       6.135000000000
       357    1        2.045000000000      49.080000000000       6.135000000000
       358    2        4.090000000000      49.080000000000       4.090000000000
       359    2        6.135000000000      51.125000000000       4.090000000000
       360    1        4.090000000000      51.125000000000       6.135000000000
       361    2       75.665000000000      51.125000000000       4.090000000000
       362    2       77.710000000000      49.080000000000       4.090000000000
       363    1       77.710000000000      51.125000000000       6.135000000000
       364    1       79.755000000000      49.080000000000       6.135000000000
       365    1        4.090000000000      53.170000000000       4.090000000000