 # Ag nanotube of type zigzag (0,20); radius: 6.939 A..
 
         116  atoms
           1  atom types
 
      0.000000000000      27.756622075227  xlo xhi
      0.000000000000      24.037939840390  ylo yhi
      0.000000000000       3.775870760500  zlo zhi
     13.878311037613       0.000000000000       0.000000000000  xy xz yz
 
Masses
 
            1   63.54600000             # Cu
 
Atoms # atomic
 
         1    1       27.756622075227      12.018969920195       1.258623586833
         2    1       27.756622075227      12.018969920195       0.000000000000
         3    1       27.671189555922      13.104493001610       3.146558967083
         4    1       27.671189555922      13.104493001610       1.887935380250
         5    1       27.416995630167      14.163286902117       1.258623586833
         6    1       27.416995630167      14.163286902117       0.000000000000
         7    1       27.000299396034      15.169280601948       3.146558967083
         8    1       27.000299396034      15.169280601948       1.887935380250
         9    1       26.431361297745      16.097703197513       1.258623586833
        10    1       26.431361297745      16.097703197513       0.000000000000
        11    1       25.724190479476      16.925693843251       3.146558967083
        12    1       25.724190479476      16.925693843251       1.887935380250
        13    1       24.896199833738      17.632864661520       1.258623586833
        14    1       24.896199833738      17.632864661520       0.000000000000
        15    1       23.967777238173      18.201802759809       3.146558967083
        16    1       23.967777238173      18.201802759809       1.887935380250
        17    1       22.961783538342      18.618498993942       1.258623586833
        18    1       22.961783538342      18.618498993942       0.000000000000
        19    1       21.902989637835      18.872692919697       3.146558967083
        20    1       21.902989637835      18.872692919697       1.887935380250
        21    1       20.817466556420      18.958125439002       1.258623586833
        22    1       20.817466556420      18.958125439002       0.000000000000
        23    1       19.731943475005      18.872692919697       3.146558967083
        24    1       19.731943475005      18.872692919697       1.887935380250
        25    1       18.673149574498      18.618498993942       1.258623586833
        26    1       18.673149574498      18.618498993942       0.000000000000
        27    1       17.667155874667      18.201802759809       3.146558967083
        28    1       17.667155874667      18.201802759809       1.887935380250
        29    1       16.738733279102      17.632864661520       1.258623586833
        30    1       16.738733279102      17.632864661520       0.000000000000
        31    1       15.910742633364      16.925693843251       3.146558967083
        32    1       15.910742633364      16.925693843251       1.887935380250
        33    1       15.203571815095      16.097703197513       1.258623586833
        34    1       15.203571815095      16.097703197513       0.000000000000
        35    1       14.634633716806      15.169280601948       3.146558967083
        36    1       14.634633716806      15.169280601948       1.887935380250
        37    1       14.217937482673      14.163286902117       1.258623586833
        38    1       14.217937482673      14.163286902117       0.000000000000
        39    1       13.963743556918      13.104493001610       3.146558967083
        40    1       13.963743556918      13.104493001610       1.887935380250
        41    1       13.878311037613      12.018969920195       1.258623586833
        42    1       13.878311037613      12.018969920195       0.000000000000
        43    1       13.963743556918      10.933446838780       3.146558967083
        44    1       13.963743556918      10.933446838780       1.887935380250
        45    1       14.217937482673       9.874652938273       1.258623586833
        46    1       14.217937482673       9.874652938273       0.000000000000
        47    1       14.634633716806       8.868659238442       3.146558967083
        48    1       14.634633716806       8.868659238442       1.887935380250
        49    1       15.203571815095       7.940236642877       1.258623586833
        50    1       15.203571815095       7.940236642877       0.000000000000
        51    1       15.910742633364       7.112245997139       3.146558967083
        52    1       15.910742633364       7.112245997139       1.887935380250
        53    1       16.738733279102       6.405075178870       1.258623586833
        54    1       16.738733279102       6.405075178870       0.000000000000
        55    1       17.667155874667       5.836137080581       3.146558967083
        56    1       17.667155874667       5.836137080581       1.887935380250
        57    1       18.673149574498       5.419440846448       1.258623586833
        58    1       18.673149574498       5.419440846448       0.000000000000
        59    1       19.731943475005       5.165246920693       3.146558967083
        60    1       19.731943475005       5.165246920693       1.887935380250
        61    1       20.817466556420       5.079814401388       1.258623586833
        62    1       20.817466556420       5.079814401388       0.000000000000
        63    1       21.902989637835       5.165246920693       3.146558967083
        64    1       21.902989637835       5.165246920693       1.887935380250
        65    1       22.961783538342       5.419440846448       1.258623586833
        66    1       22.961783538342       5.419440846448       0.000000000000
        67    1       23.967777238173       5.836137080581       3.146558967083
        68    1       23.967777238173       5.836137080581       1.887935380250
        69    1       24.896199833738       6.405075178870       1.258623586833
        70    1       24.896199833738       6.405075178870       0.000000000000
        71    1       25.724190479476       7.112245997139       3.146558967083
        72    1       25.724190479476       7.112245997139       1.887935380250
        73    1       26.431361297745       7.940236642877       1.258623586833
        74    1       26.431361297745       7.940236642877       0.000000000000
        75    1       27.000299396034       8.868659238442       3.146558967083
        76    1       27.000299396034       8.868659238442       1.887935380250
        77    1       27.416995630167       9.874652938273       1.258623586833
        78    1       27.416995630167       9.874652938273       0.000000000000
        79    1       27.671189555922      10.933446838780       3.146558967083
        80    1       27.671189555922      10.933446838780       1.887935380250
        81    1       24.312509106718      12.018969920195       0.000000000000
        82    1       24.101732250268      13.214344874177       3.521836642057
        83    1       24.101732250268      13.214344874177       2.113101985234
        84    1       23.494824480540      14.265539966854       1.408734656823
        85    1       23.494824480540      14.265539966854       0.000000000000
        86    1       22.564987831569      15.045765556061       3.521836642057
        87    1       22.564987831569      15.045765556061       2.113101985234
        88    1       21.424374326148      15.460914920836       1.408734656823
        89    1       21.424374326148      15.460914920836       0.000000000000
        90    1       20.210558786692      15.460914920836       3.521836642057
        91    1       20.210558786692      15.460914920836       2.113101985234
        92    1       19.069945281271      15.045765556061       1.408734656823
        93    1       19.069945281271      15.045765556061       0.000000000000
        94    1       18.140108632300      14.265539966854       3.521836642057
        95    1       18.140108632300      14.265539966854       2.113101985234
        96    1       17.533200862572      13.214344874177       1.408734656823
        97    1       17.533200862572      13.214344874177       0.000000000000
        98    1       17.322424006122      12.018969920195       3.521836642057
        99    1       17.322424006122      12.018969920195       2.113101985234
       100    1       17.533200862572      10.823594966213       1.408734656823
       101    1       17.533200862572      10.823594966213       0.000000000000
       102    1       18.140108632300       9.772399873536       3.521836642057
       103    1       18.140108632300       9.772399873536       2.113101985234
       104    1       19.069945281271       8.992174284329       1.408734656823
       105    1       19.069945281271       8.992174284329       0.000000000000
       106    1       20.210558786692       8.577024919554       3.521836642057
       107    1       20.210558786692       8.577024919554       2.113101985234
       108    1       21.424374326148       8.577024919554       1.408734656823
       109    1       21.424374326148       8.577024919554       4.226203970468
       110    1       22.564987831569       8.992174284329       3.521836642057
       111    1       22.564987831569       8.992174284329       2.113101985234
       112    1       23.494824480540       9.772399873536       1.408734656823
       113    1       23.494824480540       9.772399873536       0.000000000000
       114    1       24.101732250268      10.823594966213       3.521836642057
       115    1       24.101732250268      10.823594966213       2.113101985234
       116    1       24.312509106718      12.018969920195       1.408734656823
