 # CuAg nanotube of type zigzag (0,8); radius: 3.310 A..
 
          32  atoms
           2  atom types
 
      0.000000000000      13.241691265246  xlo xhi
      0.000000000000      11.467641024773  ylo yhi
      0.000000000000       4.503332099679  zlo zhi
      6.620845632623       0.000000000000       0.000000000000  xy xz yz
 
Masses
 
            1   107.86820000            # Ag
            2   63.54600000             # Cu
 
Atoms # atomic
 
         1    1       13.241691265246       5.733820512387       1.501110699893
         2    2       13.241691265246       5.733820512387       0.000000000000
         3    1       12.989700332883       7.000664478312       3.752776749733
         4    2       12.989700332883       7.000664478312       2.251666049840
         5    1       12.272090870943       8.074642934395       1.501110699893
         6    2       12.272090870943       8.074642934395       0.000000000000
         7    1       11.198112414860       8.792252396335       3.752776749733
         8    2       11.198112414860       8.792252396335       2.251666049840
         9    1        9.931268448934       9.044243328698       1.501110699893
        10    2        9.931268448934       9.044243328698       0.000000000000
        11    1        8.664424483009       8.792252396335       3.752776749733
        12    2        8.664424483009       8.792252396335       2.251666049840
        13    1        7.590446026926       8.074642934395       1.501110699893
        14    2        7.590446026926       8.074642934395       0.000000000000
        15    1        6.872836564986       7.000664478312       3.752776749733
        16    2        6.872836564986       7.000664478312       2.251666049840
        17    1        6.620845632623       5.733820512387       1.501110699893
        18    2        6.620845632623       5.733820512387       0.000000000000
        19    1        6.872836564986       4.466976546461       3.752776749733
        20    2        6.872836564986       4.466976546461       2.251666049840
        21    1        7.590446026926       3.392998090378       1.501110699893
        22    2        7.590446026926       3.392998090378       0.000000000000
        23    1        8.664424483009       2.675388628438       3.752776749733
        24    2        8.664424483009       2.675388628438       2.251666049840
        25    1        9.931268448934       2.423397696075       1.501110699893
        26    2        9.931268448934       2.423397696075       0.000000000000
        27    1       11.198112414860       2.675388628438       3.752776749733
        28    2       11.198112414860       2.675388628438       2.251666049840
        29    1       12.272090870943       3.392998090378       1.501110699893
        30    2       12.272090870943       3.392998090378       0.000000000000
        31    1       12.989700332883       4.466976546461       3.752776749733
        32    2       12.989700332883       4.466976546461       2.251666049840
