 # Fcc Ag oriented X=[100] Y=[010] Z=[001].
 
       15683  atoms
           2  atom types
 
      0.000000000000     163.600000000000  xlo xhi
      0.000000000000     163.600000000000  ylo yhi
      0.000000000000     163.600000000000  zlo zhi
 
Masses
 
            1   107.86820000            # Ag
            2   63.54600000             # Cu
 
Atoms # atomic
 
         1    1       77.710000000000      75.665000000000      42.945000000000
         2    1       79.755000000000      73.620000000000      42.945000000000
         3    1       81.800000000000      75.665000000000      42.945000000000
         4    1       83.845000000000      73.620000000000      42.945000000000
         5    1       85.890000000000      75.665000000000      42.945000000000
         6    1       73.620000000000      79.755000000000      42.945000000000
         7    1       75.665000000000      77.710000000000      42.945000000000
         8    1       77.710000000000      79.755000000000      42.945000000000
         9    1       79.755000000000      77.710000000000      42.945000000000
        10    1       81.800000000000      79.755000000000      42.945000000000
        11    1       83.845000000000      77.710000000000      42.945000000000
        12    1       85.890000000000      79.755000000000      42.945000000000
        13    1       87.935000000000      77.710000000000      42.945000000000
        14    1       89.980000000000      79.755000000000      42.945000000000
        15    1       73.620000000000      83.845000000000      42.945000000000
        16    1       75.665000000000      81.800000000000      42.945000000000
        17    1       77.710000000000      83.845000000000      42.945000000000
        18    1       79.755000000000      81.800000000000      42.945000000000
        19    1       81.800000000000      83.845000000000      42.945000000000
        20    1       83.845000000000      81.800000000000      42.945000000000
        21    1       85.890000000000      83.845000000000      42.945000000000
        22    1       87.935000000000      81.800000000000      42.945000000000
        23    1       89.980000000000      83.845000000000      42.945000000000
        24    1       75.665000000000      85.890000000000      42.945000000000
        25    1       77.710000000000      87.935000000000      42.945000000000
        26    1       79.755000000000      85.890000000000      42.945000000000
        27    1       81.800000000000      87.935000000000      42.945000000000
        28    1       83.845000000000      85.890000000000      42.945000000000
        29    1       85.890000000000      87.935000000000      42.945000000000
        30    1       87.935000000000      85.890000000000      42.945000000000
        31    1       79.755000000000      89.980000000000      42.945000000000
        32    1       83.845000000000      89.980000000000      42.945000000000
        33    1       77.710000000000      63.395000000000      47.035000000000
        34    1       81.800000000000      63.395000000000      47.035000000000
        35    1       85.890000000000      63.395000000000      47.035000000000
        36    1       69.530000000000      67.485000000000      47.035000000000
        37    1       71.575000000000      65.440000000000      47.035000000000
        38    1       75.665000000000      67.485000000000      44.990000000000
        39    1       73.620000000000      67.485000000000      47.035000000000
        40    1       75.665000000000      65.440000000000      47.035000000000
        41    1       79.755000000000      67.485000000000      44.990000000000
        42    1       77.710000000000      67.485000000000      47.035000000000
        43    1       79.755000000000      65.440000000000      47.035000000000
        44    1       83.845000000000      67.485000000000      44.990000000000
        45    1       81.800000000000      67.485000000000      47.035000000000
        46    1       83.845000000000      65.440000000000      47.035000000000
        47    1       87.935000000000      67.485000000000      44.990000000000
        48    1       85.890000000000      67.485000000000      47.035000000000
        49    1       87.935000000000      65.440000000000      47.035000000000
        50    1       89.980000000000      67.485000000000      47.035000000000
        51    1       92.025000000000      65.440000000000      47.035000000000
        52    1       94.070000000000      67.485000000000      47.035000000000
        53    1       65.440000000000      71.575000000000      47.035000000000
        54    1       67.485000000000      69.530000000000      47.035000000000
        55    1       71.575000000000      71.575000000000      44.990000000000
        56    1       69.530000000000      71.575000000000      47.035000000000
        57    1       71.575000000000      69.530000000000      47.035000000000
        58    1       73.620000000000      69.530000000000      44.990000000000
        59    1       75.665000000000      71.575000000000      44.990000000000
        60    1       73.620000000000      71.575000000000      47.035000000000
        61    1       75.665000000000      69.530000000000      47.035000000000
        62    1       77.710000000000      69.530000000000      44.990000000000
        63    1       79.755000000000      71.575000000000      44.990000000000
        64    1       77.710000000000      71.575000000000      47.035000000000
        65    1       79.755000000000      69.530000000000      47.035000000000
        66    1       81.800000000000      69.530000000000      44.990000000000
        67    1       83.845000000000      71.575000000000      44.990000000000
        68    1       81.800000000000      71.575000000000      47.035000000000
        69    1       83.845000000000      69.530000000000      47.035000000000
        70    1       85.890000000000      69.530000000000      44.990000000000
        71    1       87.935000000000      71.575000000000      44.990000000000
        72    1       85.890000000000      71.575000000000      47.035000000000
        73    1       87.935000000000      69.530000000000      47.035000000000
        74    1       89.980000000000      69.530000000000      44.990000000000
        75    1       92.025000000000      71.575000000000      44.990000000000
        76    1       89.980000000000      71.575000000000      47.035000000000
        77    1       92.025000000000      69.530000000000      47.035000000000
        78    1       94.070000000000      71.575000000000      47.035000000000
        79    1       96.115000000000      69.530000000000      47.035000000000
        80    1       98.160000000000      71.575000000000      47.035000000000
        81    1       67.485000000000      75.665000000000      44.990000000000
        82    1       65.440000000000      75.665000000000      47.035000000000
        83    1       67.485000000000      73.620000000000      47.035000000000
        84    1       69.530000000000      73.620000000000      44.990000000000
        85    1       71.575000000000      75.665000000000      44.990000000000
        86    1       69.530000000000      75.665000000000      47.035000000000
        87    1       71.575000000000      73.620000000000      47.035000000000
        88    1       73.620000000000      73.620000000000      44.990000000000
        89    1       75.665000000000      75.665000000000      44.990000000000
        90    1       73.620000000000      75.665000000000      47.035000000000
        91    1       75.665000000000      73.620000000000      47.035000000000
        92    1       77.710000000000      73.620000000000      44.990000000000
        93    1       79.755000000000      75.665000000000      44.990000000000
        94    1       77.710000000000      75.665000000000      47.035000000000
        95    1       79.755000000000      73.620000000000      47.035000000000
        96    1       81.800000000000      73.620000000000      44.990000000000
        97    1       83.845000000000      75.665000000000      44.990000000000
        98    1       81.800000000000      75.665000000000      47.035000000000
        99    1       83.845000000000      73.620000000000      47.035000000000
       100    1       85.890000000000      73.620000000000      44.990000000000
       101    1       87.935000000000      75.665000000000      44.990000000000
       102    1       85.890000000000      75.665000000000      47.035000000000
       103    1       87.935000000000      73.620000000000      47.035000000000
       104    1       89.980000000000      73.620000000000      44.990000000000
       105    1       92.025000000000      75.665000000000      44.990000000000
       106    1       89.980000000000      75.665000000000      47.035000000000
       107    1       92.025000000000      73.620000000000      47.035000000000
       108    1       94.070000000000      73.620000000000      44.990000000000
       109    1       96.115000000000      75.665000000000      44.990000000000
       110    1       94.070000000000      75.665000000000      47.035000000000
       111    1       96.115000000000      73.620000000000      47.035000000000
       112    1       98.160000000000      75.665000000000      47.035000000000
       113    1       63.395000000000      77.710000000000      47.035000000000
       114    1       67.485000000000      79.755000000000      44.990000000000
       115    1       65.440000000000      79.755000000000      47.035000000000
       116    1       67.485000000000      77.710000000000      47.035000000000
       117    1       69.530000000000      77.710000000000      44.990000000000
       118    1       71.575000000000      79.755000000000      44.990000000000
       119    1       69.530000000000      79.755000000000      47.035000000000
       120    1       71.575000000000      77.710000000000      47.035000000000
       121    1       73.620000000000      77.710000000000      44.990000000000
       122    1       75.665000000000      79.755000000000      44.990000000000
       123    1       73.620000000000      79.755000000000      47.035000000000
       124    1       75.665000000000      77.710000000000      47.035000000000
       125    1       77.710000000000      77.710000000000      44.990000000000
       126    1       79.755000000000      79.755000000000      44.990000000000
       127    1       77.710000000000      79.755000000000      47.035000000000
       128    1       79.755000000000      77.710000000000      47.035000000000
       129    1       81.800000000000      77.710000000000      44.990000000000
       130    1       83.845000000000      79.755000000000      44.990000000000
       131    1       81.800000000000      79.755000000000      47.035000000000
       132    1       83.845000000000      77.710000000000      47.035000000000
       133    1       85.890000000000      77.710000000000      44.990000000000
       134    1       87.935000000000      79.755000000000      44.990000000000
       135    1       85.890000000000      79.755000000000      47.035000000000
       136    1       87.935000000000      77.710000000000      47.035000000000
       137    1       89.980000000000      77.710000000000      44.990000000000
       138    1       92.025000000000      79.755000000000      44.990000000000
       139    1       89.980000000000      79.755000000000      47.035000000000
       140    1       92.025000000000      77.710000000000      47.035000000000
       141    1       94.070000000000      77.710000000000      44.990000000000
       142    1       96.115000000000      79.755000000000      44.990000000000
       143    1       94.070000000000      79.755000000000      47.035000000000
       144    1       96.115000000000      77.710000000000      47.035000000000
       145    1       98.160000000000      79.755000000000      47.035000000000
       146    1      100.205000000000      77.710000000000      47.035000000000
       147    1       63.395000000000      81.800000000000      47.035000000000
       148    1       67.485000000000      83.845000000000      44.990000000000
       149    1       65.440000000000      83.845000000000      47.035000000000
       150    1       67.485000000000      81.800000000000      47.035000000000
       151    1       69.530000000000      81.800000000000      44.990000000000
       152    1       71.575000000000      83.845000000000      44.990000000000
       153    1       69.530000000000      83.845000000000      47.035000000000
       154    1       71.575000000000      81.800000000000      47.035000000000
       155    1       73.620000000000      81.800000000000      44.990000000000
       156    1       75.665000000000      83.845000000000      44.990000000000
       157    1       73.620000000000      83.845000000000      47.035000000000
       158    1       75.665000000000      81.800000000000      47.035000000000
       159    1       77.710000000000      81.800000000000      44.990000000000
       160    1       79.755000000000      83.845000000000      44.990000000000
       161    1       77.710000000000      83.845000000000      47.035000000000
       162    1       79.755000000000      81.800000000000      47.035000000000
       163    1       81.800000000000      81.800000000000      44.990000000000
       164    1       83.845000000000      83.845000000000      44.990000000000
       165    1       81.800000000000      83.845000000000      47.035000000000
       166    1       83.845000000000      81.800000000000      47.035000000000
       167    1       85.890000000000      81.800000000000      44.990000000000
       168    1       87.935000000000      83.845000000000      44.990000000000
       169    1       85.890000000000      83.845000000000      47.035000000000
       170    1       87.935000000000      81.800000000000      47.035000000000
       171    1       89.980000000000      81.800000000000      44.990000000000
       172    1       92.025000000000      83.845000000000      44.990000000000
       173    1       89.980000000000      83.845000000000      47.035000000000
       174    1       92.025000000000      81.800000000000      47.035000000000
       175    1       94.070000000000      81.800000000000      44.990000000000
       176    1       96.115000000000      83.845000000000      44.990000000000
       177    1       94.070000000000      83.845000000000      47.035000000000
       178    1       96.115000000000      81.800000000000      47.035000000000
       179    1       98.160000000000      83.845000000000      47.035000000000
       180    1      100.205000000000      81.800000000000      47.035000000000
       181    1       63.395000000000      85.890000000000      47.035000000000
       182    1       67.485000000000      87.935000000000      44.990000000000
       183    1       65.440000000000      87.935000000000      47.035000000000
       184    1       67.485000000000      85.890000000000      47.035000000000
       185    1       69.530000000000      85.890000000000      44.990000000000
       186    1       71.575000000000      87.935000000000      44.990000000000
       187    1       69.530000000000      87.935000000000      47.035000000000
       188    1       71.575000000000      85.890000000000      47.035000000000
       189    1       73.620000000000      85.890000000000      44.990000000000
       190    1       75.665000000000      87.935000000000      44.990000000000
       191    1       73.620000000000      87.935000000000      47.035000000000
       192    1       75.665000000000      85.890000000000      47.035000000000
       193    1       77.710000000000      85.890000000000      44.990000000000
       194    1       79.755000000000      87.935000000000      44.990000000000
       195    1       77.710000000000      87.935000000000      47.035000000000
       196    1       79.755000000000      85.890000000000      47.035000000000
       197    1       81.800000000000      85.890000000000      44.990000000000
       198    1       83.845000000000      87.935000000000      44.990000000000
       199    1       81.800000000000      87.935000000000      47.035000000000
       200    1       83.845000000000      85.890000000000      47.035000000000
       201    1       85.890000000000      85.890000000000      44.990000000000
       202    1       87.935000000000      87.935000000000      44.990000000000
       203    1       85.890000000000      87.935000000000      47.035000000000
       204    1       87.935000000000      85.890000000000      47.035000000000
       205    1       89.980000000000      85.890000000000      44.990000000000
       206    1       92.025000000000      87.935000000000      44.990000000000
       207    1       89.980000000000      87.935000000000      47.035000000000
       208    1       92.025000000000      85.890000000000      47.035000000000
       209    1       94.070000000000      85.890000000000      44.990000000000
       210    1       96.115000000000      87.935000000000      44.990000000000
       211    1       94.070000000000      87.935000000000      47.035000000000
       212    1       96.115000000000      85.890000000000      47.035000000000
       213    1       98.160000000000      87.935000000000      47.035000000000
       214    1      100.205000000000      85.890000000000      47.035000000000
       215    1       65.440000000000      92.025000000000      47.035000000000
       216    1       67.485000000000      89.980000000000      47.035000000000
       217    1       69.530000000000      89.980000000000      44.990000000000
       218    1       71.575000000000      92.025000000000      44.990000000000
       219    1       69.530000000000      92.025000000000      47.035000000000
       220    1       71.575000000000      89.980000000000      47.035000000000
       221    1       73.620000000000      89.980000000000      44.990000000000
       222    1       75.665000000000      92.025000000000      44.990000000000
       223    1       73.620000000000      92.025000000000      47.035000000000
       224    1       75.665000000000      89.980000000000      47.035000000000
       225    1       77.710000000000      89.980000000000      44.990000000000
       226    1       79.755000000000      92.025000000000      44.990000000000
       227    1       77.710000000000      92.025000000000      47.035000000000
       228    1       79.755000000000      89.980000000000      47.035000000000
       229    1       81.800000000000      89.980000000000      44.990000000000
       230    1       83.845000000000      92.025000000000      44.990000000000
       231    1       81.800000000000      92.025000000000      47.035000000000
       232    1       83.845000000000      89.980000000000      47.035000000000
       233    1       85.890000000000      89.980000000000      44.990000000000
       234    1       87.935000000000      92.025000000000      44.990000000000
       235    1       85.890000000000      92.025000000000      47.035000000000
       236    1       87.935000000000      89.980000000000      47.035000000000
       237    1       89.980000000000      89.980000000000      44.990000000000
       238    1       92.025000000000      92.025000000000      44.990000000000
       239    1       89.980000000000      92.025000000000      47.035000000000
       240    1       92.025000000000      89.980000000000      47.035000000000
       241    1       94.070000000000      89.980000000000      44.990000000000
       242    1       94.070000000000      92.025000000000      47.035000000000
       243    1       96.115000000000      89.980000000000      47.035000000000
       244    1       98.160000000000      92.025000000000      47.035000000000
       245    1       67.485000000000      94.070000000000      47.035000000000
       246    1       69.530000000000      96.115000000000      47.035000000000
       247    1       71.575000000000      94.070000000000      47.035000000000
       248    1       73.620000000000      94.070000000000      44.990000000000
       249    1       75.665000000000      96.115000000000      44.990000000000
       250    1       73.620000000000      96.115000000000      47.035000000000
       251    1       75.665000000000      94.070000000000      47.035000000000
       252    1       77.710000000000      94.070000000000      44.990000000000
       253    1       79.755000000000      96.115000000000      44.990000000000
       254    1       77.710000000000      96.115000000000      47.035000000000
       255    1       79.755000000000      94.070000000000      47.035000000000
       256    1       81.800000000000      94.070000000000      44.990000000000
       257    1       83.845000000000      96.115000000000      44.990000000000
       258    1       81.800000000000      96.115000000000      47.035000000000
       259    1       83.845000000000      94.070000000000      47.035000000000
       260    1       85.890000000000      94.070000000000      44.990000000000
       261    1       87.935000000000      96.115000000000      44.990000000000
       262    1       85.890000000000      96.115000000000      47.035000000000
       263    1       87.935000000000      94.070000000000      47.035000000000
       264    1       89.980000000000      94.070000000000      44.990000000000
       265    1       89.980000000000      96.115000000000      47.035000000000
       266    1       92.025000000000      94.070000000000      47.035000000000
       267    1       94.070000000000      96.115000000000      47.035000000000
       268    1       96.115000000000      94.070000000000      47.035000000000
       269    1       71.575000000000      98.160000000000      47.035000000000
       270    1       75.665000000000      98.160000000000      47.035000000000
       271    1       77.710000000000     100.205000000000      47.035000000000
       272    1       79.755000000000      98.160000000000      47.035000000000
       273    1       81.800000000000     100.205000000000      47.035000000000
       274    1       83.845000000000      98.160000000000      47.035000000000
       275    1       85.890000000000     100.205000000000      47.035000000000
       276    1       87.935000000000      98.160000000000      47.035000000000
       277    1       92.025000000000      98.160000000000      47.035000000000
       278    1       69.530000000000      59.305000000000      51.125000000000
       279    1       73.620000000000      59.305000000000      51.125000000000
       280    1       75.665000000000      57.260000000000      51.125000000000
       281    1       79.755000000000      59.305000000000      49.080000000000
       282    1       77.710000000000      59.305000000000      51.125000000000
       283    1       79.755000000000      57.260000000000      51.125000000000
       284    1       83.845000000000      59.305000000000      49.080000000000
       285    1       81.800000000000      59.305000000000      51.125000000000
       286    1       83.845000000000      57.260000000000      51.125000000000
       287    1       85.890000000000      59.305000000000      51.125000000000
       288    1       87.935000000000      57.260000000000      51.125000000000
       289    1       89.980000000000      59.305000000000      51.125000000000
       290    1       94.070000000000      59.305000000000      51.125000000000
       291    1       65.440000000000      63.395000000000      51.125000000000
       292    1       67.485000000000      61.350000000000      51.125000000000
       293    1       71.575000000000      63.395000000000      49.080000000000
       294    1       69.530000000000      63.395000000000      51.125000000000
       295    1       71.575000000000      61.350000000000      51.125000000000
       296    1       73.620000000000      61.350000000000      49.080000000000
       297    1       75.665000000000      63.395000000000      49.080000000000
       298    1       73.620000000000      63.395000000000      51.125000000000
       299    1       75.665000000000      61.350000000000      51.125000000000
       300    1       77.710000000000      61.350000000000      49.080000000000
       301    1       79.755000000000      63.395000000000      49.080000000000
       302    1       77.710000000000      63.395000000000      51.125000000000
       303    1       79.755000000000      61.350000000000      51.125000000000
       304    1       81.800000000000      61.350000000000      49.080000000000
       305    1       83.845000000000      63.395000000000      49.080000000000
       306    1       81.800000000000      63.395000000000      51.125000000000
       307    1       83.845000000000      61.350000000000      51.125000000000
       308    1       85.890000000000      61.350000000000      49.080000000000
       309    1       87.935000000000      63.395000000000      49.080000000000
       310    1       85.890000000000      63.395000000000      51.125000000000
       311    1       87.935000000000      61.350000000000      51.125000000000
       312    1       89.980000000000      61.350000000000      49.080000000000
       313    1       92.025000000000      63.395000000000      49.080000000000
       314    1       89.980000000000      63.395000000000      51.125000000000
       315    1       92.025000000000      61.350000000000      51.125000000000
       316    1       94.070000000000      63.395000000000      51.125000000000
       317    1       96.115000000000      61.350000000000      51.125000000000
       318    1       98.160000000000      63.395000000000      51.125000000000
       319    1       61.350000000000      67.485000000000      51.125000000000
       320    1       63.395000000000      65.440000000000      51.125000000000
       321    1       67.485000000000      67.485000000000      49.080000000000
       322    1       65.440000000000      67.485000000000      51.125000000000
       323    1       67.485000000000      65.440000000000      51.125000000000
       324    1       69.530000000000      65.440000000000      49.080000000000
       325    1       71.575000000000      67.485000000000      49.080000000000
       326    1       69.530000000000      67.485000000000      51.125000000000
       327    1       71.575000000000      65.440000000000      51.125000000000
       328    1       73.620000000000      65.440000000000      49.080000000000
       329    1       75.665000000000      67.485000000000      49.080000000000
       330    1       73.620000000000      67.485000000000      51.125000000000
       331    1       75.665000000000      65.440000000000      51.125000000000
       332    1       77.710000000000      65.440000000000      49.080000000000
       333    1       79.755000000000      67.485000000000      49.080000000000
       334    1       77.710000000000      67.485000000000      51.125000000000
       335    1       79.755000000000      65.440000000000      51.125000000000
       336    1       81.800000000000      65.440000000000      49.080000000000
       337    1       83.845000000000      67.485000000000      49.080000000000
       338    1       81.800000000000      67.485000000000      51.125000000000
       339    1       83.845000000000      65.440000000000      51.125000000000
       340    1       85.890000000000      65.440000000000      49.080000000000
       341    1       87.935000000000      67.485000000000      49.080000000000
       342    1       85.890000000000      67.485000000000      51.125000000000
       343    1       87.935000000000      65.440000000000      51.125000000000
       344    1       89.980000000000      65.440000000000      49.080000000000
       345    1       92.025000000000      67.485000000000      49.080000000000
       346    1       89.980000000000      67.485000000000      51.125000000000
       347    1       92.025000000000      65.440000000000      51.125000000000
       348    1       94.070000000000      65.440000000000      49.080000000000
       349    1       96.115000000000      67.485000000000      49.080000000000
       350    1       94.070000000000      67.485000000000      51.125000000000
       351    1       96.115000000000      65.440000000000      51.125000000000
       352    1       98.160000000000      67.485000000000      51.125000000000
       353    1      100.205000000000      65.440000000000      51.125000000000
       354    1      102.250000000000      67.485000000000      51.125000000000
       355    1       59.305000000000      69.530000000000      51.125000000000
       356    1       63.395000000000      71.575000000000      49.080000000000
       357    1       61.350000000000      71.575000000000      51.125000000000
       358    1       63.395000000000      69.530000000000      51.125000000000
       359    1       65.440000000000      69.530000000000      49.080000000000
       360    1       67.485000000000      71.575000000000      49.080000000000
       361    1       65.440000000000      71.575000000000      51.125000000000
       362    1       67.485000000000      69.530000000000      51.125000000000
       363    1       69.530000000000      69.530000000000      49.080000000000
       364    1       71.575000000000      71.575000000000      49.080000000000
       365    1       69.530000000000      71.575000000000      51.125000000000