 # Cu nanotube of type zigzag (0,9); radius: 3.495 A..
 
          36  atoms
           1  atom types
 
      0.000000000000      13.980170201192  xlo xhi
      0.000000000000      12.107182543463  ylo yhi
      0.000000000000       4.226203970468  zlo zhi
      6.990085100596       0.000000000000       0.000000000000  xy xz yz
 
Masses
 
            1   63.54600000             # Cu
 
Atoms # atomic
 
         1    1        3.495042550298       0.000000000000       0.000000000000
         2    1        3.284265693848       1.195374953982       3.521836642057
         3    1        3.284265693848       1.195374953982       2.113101985234
         4    1        2.677357924120       2.246570046659       1.408734656823
         5    1        2.677357924120       2.246570046659       0.000000000000
         6    1        1.747521275149       3.026795635866       3.521836642057
         7    1        1.747521275149       3.026795635866       2.113101985234
         8    1        0.606907769728       3.441945000641       1.408734656823
         9    1        0.606907769728       3.441945000641       0.000000000000
        10    1       -0.606907769728       3.441945000641       3.521836642057
        11    1       -0.606907769728       3.441945000641       2.113101985234
        12    1       -1.747521275149       3.026795635866       1.408734656823
        13    1       -1.747521275149       3.026795635866       0.000000000000
        14    1       -2.677357924120       2.246570046659       3.521836642057
        15    1       -2.677357924120       2.246570046659       2.113101985234
        16    1       -3.284265693848       1.195374953982       1.408734656823
        17    1       -3.284265693848       1.195374953982       0.000000000000
        18    1       -3.495042550298       0.000000000000       3.521836642057
        19    1       -3.495042550298       0.000000000000       2.113101985234
        20    1       -3.284265693848      -1.195374953982       1.408734656823
        21    1       -3.284265693848      -1.195374953982       0.000000000000
        22    1       -2.677357924120      -2.246570046659       3.521836642057
        23    1       -2.677357924120      -2.246570046659       2.113101985234
        24    1       -1.747521275149      -3.026795635866       1.408734656823
        25    1       -1.747521275149      -3.026795635866       0.000000000000
        26    1       -0.606907769728      -3.441945000641       3.521836642057
        27    1       -0.606907769728      -3.441945000641       2.113101985234
        28    1        0.606907769728      -3.441945000641       1.408734656823
        29    1        0.606907769728      -3.441945000641       4.226203970468
        30    1        1.747521275149      -3.026795635866       3.521836642057
        31    1        1.747521275149      -3.026795635866       2.113101985234
        32    1        2.677357924120      -2.246570046659       1.408734656823
        33    1        2.677357924120      -2.246570046659       0.000000000000
        34    1        3.284265693848      -1.195374953982       3.521836642057
        35    1        3.284265693848      -1.195374953982       2.113101985234
        36    1        3.495042550298      -0.000000000000       1.408734656823
